 72
 Geom= 1IRep= 1 IStep= 1
  14          1.8135272120        1.6553932456        5.4570355508  
   8          3.3361195900        2.2980771800        4.9957079900  
  14          4.1758996300        1.5988415000        3.6982472200  
   8          1.6871299900        1.5829541600        1.6764687900  
   8          3.5995365900        0.1460027100        3.0980560300  
   8          0.7635128200        1.0275213700        4.3025834500  
  14          0.8911390924        3.3555191769        1.9398129300  
   8         -0.6207643800        2.6854993500        2.3972229200  
   8          1.0241028200        3.3998379300        0.1727435100  
  14          1.8170287640        1.6614662912       11.0046521216  
   8          3.3396211420        2.3041502256       10.5433245608  
  14          4.1794011820        1.6049145456        9.2458637908  
   8          1.6906315420        1.5890272056        7.2240853608  
   8          3.6030381420        0.1520757556        8.6456726008  
   8          0.7670143720        1.0335944156        9.8502000208  
  14          0.8946406445        3.3615922225        7.4874295008  
   8         -0.6172628280        2.6915723956        7.9448394908  
   8          1.0276043720        3.4059109756        5.7203600808  
  14          0.2790248945        5.1993629125        5.4570355508  
   8          1.8016172724        5.8420468469        4.9957079900  
  14          2.6413973124        5.1428111669        3.6982472200  
   8          0.1526276724        5.1269238269        1.6764687900  
   8          2.0650342724        3.6899723769        3.0980560300  
   8         -0.7709894976        4.5714910369        4.3025834500  
  14         -0.6433632251        6.8994888438        1.9398129300  
   8         -2.1552666976        6.2294690169        2.3972229200  
   8         -0.5103994976        6.9438075969        0.1727435100  
  14          0.2825264465        5.2054359581       11.0046521216  
   8          1.8051188245        5.8481198925       10.5433245608  
  14          2.6448988645        5.1488842125        9.2458637908  
   8          0.1561292245        5.1329968725        7.2240853608  
   8          2.0685358245        3.6960454225        8.6456726008  
   8         -0.7674879455        4.5775640825        9.8502000208  
  14         -0.6398616731        6.9055618894        7.4874295008  
   8         -2.1517651455        6.2355420625        7.9448394908  
   8         -0.5068979455        6.9498806425        5.7203600808  
  14          6.6783592120        1.6553932456        5.4570355508  
   8          8.2009515900        2.2980771800        4.9957079900  
  14          9.0407316300        1.5988415000        3.6982472200  
   8          6.5519619900        1.5829541600        1.6764687900  
   8          8.4643685900        0.1460027100        3.0980560300  
   8          5.6283448200        1.0275213700        4.3025834500  
  14          5.7559710924        3.3555191769        1.9398129300  
   8          4.2440676200        2.6854993500        2.3972229200  
   8          5.8889348200        3.3998379300        0.1727435100  
  14          6.6818607640        1.6614662912       11.0046521216  
   8          8.2044531420        2.3041502256       10.5433245608  
  14          9.0442331820        1.6049145456        9.2458637908  
   8          6.5554635420        1.5890272056        7.2240853608  
   8          8.4678701420        0.1520757556        8.6456726008  
   8          5.6318463720        1.0335944156        9.8502000208  
  14          5.7594726445        3.3615922225        7.4874295008  
   8          4.2475691720        2.6915723956        7.9448394908  
   8          5.8924363720        3.4059109756        5.7203600808  
  14          5.1438568945        5.1993629125        5.4570355508  
   8          6.6664492724        5.8420468469        4.9957079900  
  14          7.5062293124        5.1428111669        3.6982472200  
   8          5.0174596724        5.1269238269        1.6764687900  
   8          6.9298662724        3.6899723769        3.0980560300  
   8          4.0938425024        4.5714910369        4.3025834500  
  14          4.2214687749        6.8994888438        1.9398129300  
   8          2.7095653024        6.2294690169        2.3972229200  
   8          4.3544325024        6.9438075969        0.1727435100  
  14          5.1473584465        5.2054359581       11.0046521216  
   8          6.6699508245        5.8481198925       10.5433245608  
  14          7.5097308645        5.1488842125        9.2458637908  
   8          5.0209612245        5.1329968725        7.2240853608  
   8          6.9333678245        3.6960454225        8.6456726008  
   8          4.0973440545        4.5775640825        9.8502000208  
  14          4.2249703269        6.9055618894        7.4874295008  
   8          2.7130668545        6.2355420625        7.9448394908  
   8          4.3579340545        6.9498806425        5.7203600808  
